 # File generated with Atomsk by michele on 2025-04-04 12:08:44
  
           2  atoms
           1  atom types
 
      0.000000000000       3.192480000000  xlo xhi
      0.000000000000       3.192480000000  ylo yhi
      0.000000000000       3.192480000000  zlo zhi
 
Masses
 
            1   183.84000000            # W
 
Atoms # atomic
 
         1    1       -0.000000000000      -0.000000000000      -0.000000000000
         2    1        1.596240000000       1.596240000000       1.596240000000
