 # Bcc Cr oriented X=[100] Y=[010] Z=[001].
 
           2  atoms
           1  atom types
 
      0.000000000000       2.884900000000  xlo xhi
      0.000000000000       2.884900000000  ylo yhi
      0.000000000000       2.884900000000  zlo zhi
 
Masses
 
            1   51.99610000             # Cr
 
Atoms # atomic
 
         1    1        0.000000000000       0.000000000000       0.000000000000
         2    1        1.442450000000       1.442450000000       1.442450000000
