 # Bcc W oriented X=[100] Y=[010] Z=[001].
 
           2  atoms
           1  atom types
 
      0.000000000000       3.165200000000  xlo xhi
      0.000000000000       3.165200000000  ylo yhi
      0.000000000000       3.165200000000  zlo zhi
 
Masses
 
            1   183.84000000            # W
 
Atoms # atomic
 
         1    1        0.000000000000       0.000000000000       0.000000000000
         2    1        1.582600000000       1.582600000000       1.582600000000
