# File generated with Atomsk by joe on 2025-04-04 11:24:09

     16  atoms
     5  atom types

     0.000000000000       6.250815278643  xlo xhi
     0.000000000000       6.221303629724  ylo yhi
     0.000000000000       6.189552046643  zlo zhi
     -0.015488689896       0.038876303154      -0.008166406211  xy xz yz

Masses

     1    95.96000000             # Mo
     2    183.84000000            # W
     3    26.98153860             # Al
     4    47.86700000             # Ti
     5    51.99610000             # Cr

Atoms # atomic

     1    1        0.104035812885       0.005142191183      -0.026355473342
     2    1        1.620423457618       4.666186131103       1.657535195456
     3    1        4.708634039391       1.558197723333       4.539423870883
     4    2        0.075943144271       0.007759553415       3.076706347293
     5    2        0.083900671851       3.109935398439      -0.014409835185
     6    2        4.704824334563       4.674729559601       1.584715553110
     7    3        0.044026931561       3.112072444097       3.076738079438
     8    3        1.628182286127       1.522722965471       4.636887464718
     9    3        3.071762684324       3.094586662775       3.098432043604
     10   4        1.541037641344       1.570179858749       1.648398314278
     11   4        1.568592222198       4.644212039258       4.575177855956
     12   4        3.046852897099      -0.004210324620       3.106622723745
     13   5        3.044607486086      -0.014045594671       0.007838634990
     14   5        3.036140736935       3.118412164552       0.006104888161
     15   5        4.676307295889       1.525583744869       1.547358579235
     16   5        4.689945709261       4.687358823523       4.616138037520
